ITEM: TIMESTEP
0
ITEM: NUMBER OF ATOMS
13600
ITEM: BOX BOUNDS pp pp pp
0.0000000000000000e+00 6.3295999999999999e+01
0.0000000000000000e+00 5.3801600000000001e+01
0.0000000000000000e+00 6.3295999999999999e+01
ITEM: ATOMS id type xs ys zs
1 2 0.005 0.00588235 0.005
2 2 0.03 0.0352941 0.03
3 2 0.055 0.00588235 0.005
4 2 0.08 0.0352941 0.03
5 2 0.105 0.00588235 0.005
6 2 0.13 0.0352941 0.03
7 2 0.155 0.00588235 0.005
8 2 0.18 0.0352941 0.03
9 2 0.205 0.00588235 0.005
10 2 0.23 0.0352941 0.03
11 2 0.255 0.00588235 0.005
12 2 0.28 0.0352941 0.03
13 2 0.305 0.00588235 0.005
14 2 0.33 0.0352941 0.03
15 2 0.355 0.00588235 0.005
16 2 0.38 0.0352941 0.03
17 2 0.405 0.00588235 0.005
18 2 0.43 0.0352941 0.03
19 2 0.455 0.00588235 0.005
20 2 0.48 0.0352941 0.03
21 2 0.505 0.00588235 0.005
22 2 0.53 0.0352941 0.03
23 2 0.555 0.00588235 0.005
24 2 0.58 0.0352941 0.03
25 2 0.605 0.00588235 0.005
26 2 0.63 0.0352941 0.03
27 2 0.655 0.00588235 0.005
28 2 0.68 0.0352941 0.03
29 2 0.705 0.00588235 0.005
30 2 0.73 0.0352941 0.03
31 2 0.755 0.00588235 0.005
32 2 0.78 0.0352941 0.03
33 2 0.805 0.00588235 0.005
34 2 0.83 0.0352941 0.03
35 2 0.855 0.00588235 0.005
36 2 0.88 0.0352941 0.03
37 2 0.905 0.00588235 0.005
38 2 0.93 0.0352941 0.03
39 2 0.955 0.00588235 0.005
40 2 0.98 0.0352941 0.03
41 2 0.005 0.0647059 0.005
43 2 0.055 0.0647059 0.005
45 2 0.105 0.0647059 0.005
47 2 0.155 0.0647059 0.005
49 2 0.205 0.0647059 0.005
51 2 0.255 0.0647059 0.005
53 2 0.305 0.0647059 0.005
55 2 0.355 0.0647059 0.005
57 2 0.405 0.0647059 0.005
59 2 0.455 0.0647059 0.005
61 2 0.505 0.0647059 0.005
63 2 0.555 0.0647059 0.005
65 2 0.605 0.0647059 0.005
67 2 0.655 0.0647059 0.005
69 2 0.705 0.0647059 0.005
71 2 0.755 0.0647059 0.005
73 2 0.805 0.0647059 0.005
75 2 0.855 0.0647059 0.005
77 2 0.905 0.0647059 0.005
79 2 0.955 0.0647059 0.005
42 2 0.03 0.0941176 0.03
81 2 0.005 0.123529 0.005
83 2 0.055 0.123529 0.005
44 2 0.08 0.0941176 0.03
85 2 0.105 0.123529 0.005
46 2 0.13 0.0941176 0.03
87 2 0.155 0.123529 0.005
48 2 0.18 0.0941176 0.03
89 2 0.205 0.123529 0.005
50 2 0.23 0.0941176 0.03
52 2 0.28 0.0941176 0.03
91 2 0.255 0.123529 0.005
93 2 0.305 0.123529 0.005
54 2 0.33 0.0941176 0.03
95 2 0.355 0.123529 0.005
56 2 0.38 0.0941176 0.03
97 2 0.405 0.123529 0.005
58 2 0.43 0.0941176 0.03
99 2 0.455 0.123529 0.005
60 2 0.48 0.0941176 0.03
62 2 0.53 0.0941176 0.03
101 2 0.505 0.123529 0.005
103 2 0.555 0.123529 0.005
64 2 0.58 0.0941176 0.03
105 2 0.605 0.123529 0.005
66 2 0.63 0.0941176 0.03
107 2 0.655 0.123529 0.005
68 2 0.68 0.0941176 0.03
109 2 0.705 0.123529 0.005
70 2 0.73 0.0941176 0.03
72 2 0.78 0.0941176 0.03
111 2 0.755 0.123529 0.005
113 2 0.805 0.123529 0.005
74 2 0.83 0.0941176 0.03
115 2 0.855 0.123529 0.005
76 2 0.88 0.0941176 0.03
117 2 0.905 0.123529 0.005
78 2 0.93 0.0941176 0.03
119 2 0.955 0.123529 0.005
80 2 0.98 0.0941176 0.03
82 2 0.03 0.152941 0.03
84 2 0.08 0.152941 0.03
86 2 0.13 0.152941 0.03
88 2 0.18 0.152941 0.03
90 2 0.23 0.152941 0.03
92 2 0.28 0.152941 0.03
94 2 0.33 0.152941 0.03
96 2 0.38 0.152941 0.03
98 2 0.43 0.152941 0.03
100 2 0.48 0.152941 0.03
102 2 0.53 0.152941 0.03
104 2 0.58 0.152941 0.03
106 2 0.63 0.152941 0.03
108 2 0.68 0.152941 0.03
110 2 0.73 0.152941 0.03
112 2 0.78 0.152941 0.03
114 2 0.83 0.152941 0.03
116 2 0.88 0.152941 0.03
118 2 0.93 0.152941 0.03
120 2 0.98 0.152941 0.03
121 2 0.005 0.182353 0.005
123 2 0.055 0.182353 0.005
125 2 0.105 0.182353 0.005
127 2 0.155 0.182353 0.005
129 2 0.205 0.182353 0.005
131 2 0.255 0.182353 0.005
133 2 0.305 0.182353 0.005
135 2 0.355 0.182353 0.005
137 2 0.405 0.182353 0.005
139 2 0.455 0.182353 0.005
141 2 0.505 0.182353 0.005
143 2 0.555 0.182353 0.005
145 2 0.605 0.182353 0.005
147 2 0.655 0.182353 0.005
149 2 0.705 0.182353 0.005
151 2 0.755 0.182353 0.005
153 2 0.805 0.182353 0.005
155 2 0.855 0.182353 0.005
157 2 0.905 0.182353 0.005
159 2 0.955 0.182353 0.005
122 2 0.03 0.211765 0.03
161 2 0.005 0.241176 0.005
163 2 0.055 0.241176 0.005
124 2 0.08 0.211765 0.03
165 2 0.105 0.241176 0.005
126 2 0.13 0.211765 0.03
167 2 0.155 0.241176 0.005
128 2 0.18 0.211765 0.03
169 2 0.205 0.241176 0.005
130 2 0.23 0.211765 0.03
132 2 0.28 0.211765 0.03
171 2 0.255 0.241176 0.005
173 2 0.305 0.241176 0.005
134 2 0.33 0.211765 0.03
175 2 0.355 0.241176 0.005
136 2 0.38 0.211765 0.03
177 2 0.405 0.241176 0.005
138 2 0.43 0.211765 0.03
179 2 0.455 0.241176 0.005
140 2 0.48 0.211765 0.03
142 2 0.53 0.211765 0.03
181 2 0.505 0.241176 0.005
183 2 0.555 0.241176 0.005
144 2 0.58 0.211765 0.03
185 2 0.605 0.241176 0.005
146 2 0.63 0.211765 0.03
187 2 0.655 0.241176 0.005
148 2 0.68 0.211765 0.03
189 2 0.705 0.241176 0.005
150 2 0.73 0.211765 0.03
152 2 0.78 0.211765 0.03
191 2 0.755 0.241176 0.005
193 2 0.805 0.241176 0.005
154 2 0.83 0.211765 0.03
195 2 0.855 0.241176 0.005
156 2 0.88 0.211765 0.03
197 2 0.905 0.241176 0.005
158 2 0.93 0.211765 0.03
199 2 0.955 0.241176 0.005
160 2 0.98 0.211765 0.03
162 2 0.03 0.270588 0.03
164 2 0.08 0.270588 0.03
166 2 0.13 0.270588 0.03
168 2 0.18 0.270588 0.03
170 2 0.23 0.270588 0.03
172 2 0.28 0.270588 0.03
174 2 0.33 0.270588 0.03
176 2 0.38 0.270588 0.03
178 2 0.43 0.270588 0.03
180 2 0.48 0.270588 0.03
182 2 0.53 0.270588 0.03
184 2 0.58 0.270588 0.03
186 2 0.63 0.270588 0.03
188 2 0.68 0.270588 0.03
190 2 0.73 0.270588 0.03
192 2 0.78 0.270588 0.03
194 2 0.83 0.270588 0.03
196 2 0.88 0.270588 0.03
198 2 0.93 0.270588 0.03
200 2 0.98 0.270588 0.03
201 2 0.005 0.3 0.005
202 2 0.03 0.329412 0.03
203 2 0.055 0.3 0.005
204 2 0.08 0.329412 0.03
205 2 0.105 0.3 0.005
206 2 0.13 0.329412 0.03
207 2 0.155 0.3 0.005
208 2 0.18 0.329412 0.03
209 2 0.205 0.3 0.005
210 2 0.23 0.329412 0.03
211 2 0.255 0.3 0.005
212 2 0.28 0.329412 0.03
213 2 0.305 0.3 0.005
214 2 0.33 0.329412 0.03
215 2 0.355 0.3 0.005
216 2 0.38 0.329412 0.03
217 2 0.405 0.3 0.005
218 2 0.43 0.329412 0.03
219 2 0.455 0.3 0.005
220 2 0.48 0.329412 0.03
221 2 0.505 0.3 0.005
222 2 0.53 0.329412 0.03
223 2 0.555 0.3 0.005
224 2 0.58 0.329412 0.03
225 2 0.605 0.3 0.005
226 2 0.63 0.329412 0.03
227 2 0.655 0.3 0.005
228 2 0.68 0.329412 0.03
229 2 0.705 0.3 0.005
230 2 0.73 0.329412 0.03
231 2 0.755 0.3 0.005
232 2 0.78 0.329412 0.03
233 2 0.805 0.3 0.005
234 2 0.83 0.329412 0.03
235 2 0.855 0.3 0.005
236 2 0.88 0.329412 0.03
237 2 0.905 0.3 0.005
238 2 0.93 0.329412 0.03
239 2 0.955 0.3 0.005
240 2 0.98 0.329412 0.03
241 2 0.005 0.358824 0.005
243 2 0.055 0.358824 0.005
245 2 0.105 0.358824 0.005
247 2 0.155 0.358824 0.005
249 2 0.205 0.358824 0.005
251 2 0.255 0.358824 0.005
253 2 0.305 0.358824 0.005
255 2 0.355 0.358824 0.005
257 2 0.405 0.358824 0.005
259 2 0.455 0.358824 0.005
261 2 0.505 0.358824 0.005
263 2 0.555 0.358824 0.005
265 2 0.605 0.358824 0.005
267 2 0.655 0.358824 0.005
269 2 0.705 0.358824 0.005
271 2 0.755 0.358824 0.005
273 2 0.805 0.358824 0.005
275 2 0.855 0.358824 0.005
277 2 0.905 0.358824 0.005
279 2 0.955 0.358824 0.005
242 2 0.03 0.388235 0.03
244 2 0.08 0.388235 0.03
246 2 0.13 0.388235 0.03
248 2 0.18 0.388235 0.03
250 2 0.23 0.388235 0.03
252 2 0.28 0.388235 0.03
254 2 0.33 0.388235 0.03
256 2 0.38 0.388235 0.03
258 2 0.43 0.388235 0.03
260 2 0.48 0.388235 0.03
262 2 0.53 0.388235 0.03
264 2 0.58 0.388235 0.03
266 2 0.63 0.388235 0.03
268 2 0.68 0.388235 0.03
270 2 0.73 0.388235 0.03
272 2 0.78 0.388235 0.03
274 2 0.83 0.388235 0.03
276 2 0.88 0.388235 0.03
278 2 0.93 0.388235 0.03
280 2 0.98 0.388235 0.03
281 2 0.005 0.417647 0.005
282 2 0.03 0.447059 0.03
283 2 0.055 0.417647 0.005
284 2 0.08 0.447059 0.03
285 2 0.105 0.417647 0.005
286 2 0.13 0.447059 0.03
287 2 0.155 0.417647 0.005
288 2 0.18 0.447059 0.03
289 2 0.205 0.417647 0.005
290 2 0.23 0.447059 0.03
291 2 0.255 0.417647 0.005
292 2 0.28 0.447059 0.03
293 2 0.305 0.417647 0.005
294 2 0.33 0.447059 0.03
295 2 0.355 0.417647 0.005
296 2 0.38 0.447059 0.03
297 2 0.405 0.417647 0.005
298 2 0.43 0.447059 0.03
299 2 0.455 0.417647 0.005
300 2 0.48 0.447059 0.03
301 2 0.505 0.417647 0.005
302 2 0.53 0.447059 0.03
303 2 0.555 0.417647 0.005
304 2 0.58 0.447059 0.03
305 2 0.605 0.417647 0.005
306 2 0.63 0.447059 0.03
307 2 0.655 0.417647 0.005
308 2 0.68 0.447059 0.03
309 2 0.705 0.417647 0.005
310 2 0.73 0.447059 0.03
311 2 0.755 0.417647 0.005
312 2 0.78 0.447059 0.03
313 2 0.805 0.417647 0.005
314 2 0.83 0.447059 0.03
315 2 0.855 0.417647 0.005
316 2 0.88 0.447059 0.03
317 2 0.905 0.417647 0.005
318 2 0.93 0.447059 0.03
319 2 0.955 0.417647 0.005
320 2 0.98 0.447059 0.03
321 2 0.005 0.476471 0.005
323 2 0.055 0.476471 0.005
325 2 0.105 0.476471 0.005
327 2 0.155 0.476471 0.005
329 2 0.205 0.476471 0.005
331 2 0.255 0.476471 0.005
333 2 0.305 0.476471 0.005
335 2 0.355 0.476471 0.005
337 2 0.405 0.476471 0.005
339 2 0.455 0.476471 0.005
341 2 0.505 0.476471 0.005
343 2 0.555 0.476471 0.005
345 2 0.605 0.476471 0.005
347 2 0.655 0.476471 0.005
349 2 0.705 0.476471 0.005
351 2 0.755 0.476471 0.005
353 2 0.805 0.476471 0.005
355 2 0.855 0.476471 0.005
357 2 0.905 0.476471 0.005
359 2 0.955 0.476471 0.005
322 2 0.03 0.505882 0.03
361 2 0.005 0.535294 0.005
363 2 0.055 0.535294 0.005
324 2 0.08 0.505882 0.03
365 2 0.105 0.535294 0.005
326 2 0.13 0.505882 0.03
367 2 0.155 0.535294 0.005
328 2 0.18 0.505882 0.03
369 2 0.205 0.535294 0.005
330 2 0.23 0.505882 0.03
332 2 0.28 0.505882 0.03
371 2 0.255 0.535294 0.005
373 2 0.305 0.535294 0.005
334 2 0.33 0.505882 0.03
375 2 0.355 0.535294 0.005
336 2 0.38 0.505882 0.03
377 2 0.405 0.535294 0.005
338 2 0.43 0.505882 0.03
379 2 0.455 0.535294 0.005
340 2 0.48 0.505882 0.03
342 2 0.53 0.505882 0.03
381 2 0.505 0.535294 0.005
383 2 0.555 0.535294 0.005
344 2 0.58 0.505882 0.03
385 2 0.605 0.535294 0.005
346 2 0.63 0.505882 0.03
387 2 0.655 0.535294 0.005
348 2 0.68 0.505882 0.03
389 2 0.705 0.535294 0.005
350 2 0.73 0.505882 0.03
352 2 0.78 0.505882 0.03
391 2 0.755 0.535294 0.005
393 2 0.805 0.535294 0.005
354 2 0.83 0.505882 0.03
395 2 0.855 0.535294 0.005
356 2 0.88 0.505882 0.03
397 2 0.905 0.535294 0.005
358 2 0.93 0.505882 0.03
399 2 0.955 0.535294 0.005
360 2 0.98 0.505882 0.03
362 2 0.03 0.564706 0.03
364 2 0.08 0.564706 0.03
366 2 0.13 0.564706 0.03
368 2 0.18 0.564706 0.03
370 2 0.23 0.564706 0.03
372 2 0.28 0.564706 0.03
374 2 0.33 0.564706 0.03
376 2 0.38 0.564706 0.03
378 2 0.43 0.564706 0.03
380 2 0.48 0.564706 0.03
382 2 0.53 0.564706 0.03
384 2 0.58 0.564706 0.03
386 2 0.63 0.564706 0.03
388 2 0.68 0.564706 0.03
390 2 0.73 0.564706 0.03
392 2 0.78 0.564706 0.03
394 2 0.83 0.564706 0.03
396 2 0.88 0.564706 0.03
398 2 0.93 0.564706 0.03
400 2 0.98 0.564706 0.03
401 2 0.005 0.594118 0.005
402 2 0.03 0.623529 0.03
403 2 0.055 0.594118 0.005
404 2 0.08 0.623529 0.03
405 2 0.105 0.594118 0.005
406 2 0.13 0.623529 0.03
407 2 0.155 0.594118 0.005
408 2 0.18 0.623529 0.03
409 2 0.205 0.594118 0.005
410 2 0.23 0.623529 0.03
411 2 0.255 0.594118 0.005
412 2 0.28 0.623529 0.03
413 2 0.305 0.594118 0.005
414 2 0.33 0.623529 0.03
415 2 0.355 0.594118 0.005
416 2 0.38 0.623529 0.03
417 2 0.405 0.594118 0.005
418 2 0.43 0.623529 0.03
419 2 0.455 0.594118 0.005
420 2 0.48 0.623529 0.03
421 2 0.505 0.594118 0.005
422 2 0.53 0.623529 0.03
423 2 0.555 0.594118 0.005
424 2 0.58 0.623529 0.03
425 2 0.605 0.594118 0.005
426 2 0.63 0.623529 0.03
427 2 0.655 0.594118 0.005
428 2 0.68 0.623529 0.03
429 2 0.705 0.594118 0.005
430 2 0.73 0.623529 0.03
431 2 0.755 0.594118 0.005
432 2 0.78 0.623529 0.03
433 2 0.805 0.594118 0.005
434 2 0.83 0.623529 0.03
435 2 0.855 0.594118 0.005
436 2 0.88 0.623529 0.03
437 2 0.905 0.594118 0.005
438 2 0.93 0.623529 0.03
439 2 0.955 0.594118 0.005
440 2 0.98 0.623529 0.03
441 2 0.005 0.652941 0.005
443 2 0.055 0.652941 0.005
445 2 0.105 0.652941 0.005
447 2 0.155 0.652941 0.005
449 2 0.205 0.652941 0.005
451 2 0.255 0.652941 0.005
453 2 0.305 0.652941 0.005
455 2 0.355 0.652941 0.005
457 2 0.405 0.652941 0.005
459 2 0.455 0.652941 0.005
461 2 0.505 0.652941 0.005
463 2 0.555 0.652941 0.005
465 2 0.605 0.652941 0.005
467 2 0.655 0.652941 0.005
469 2 0.705 0.652941 0.005
471 2 0.755 0.652941 0.005
473 2 0.805 0.652941 0.005
475 2 0.855 0.652941 0.005
477 2 0.905 0.652941 0.005
479 2 0.955 0.652941 0.005
442 2 0.03 0.682353 0.03
444 2 0.08 0.682353 0.03
446 2 0.13 0.682353 0.03
448 2 0.18 0.682353 0.03
450 2 0.23 0.682353 0.03
452 2 0.28 0.682353 0.03
454 2 0.33 0.682353 0.03
456 2 0.38 0.682353 0.03
458 2 0.43 0.682353 0.03
460 2 0.48 0.682353 0.03
462 2 0.53 0.682353 0.03
464 2 0.58 0.682353 0.03
466 2 0.63 0.682353 0.03
468 2 0.68 0.682353 0.03
470 2 0.73 0.682353 0.03
472 2 0.78 0.682353 0.03
474 2 0.83 0.682353 0.03
476 2 0.88 0.682353 0.03
478 2 0.93 0.682353 0.03
480 2 0.98 0.682353 0.03
481 2 0.005 0.711765 0.005
482 2 0.03 0.741176 0.03
483 2 0.055 0.711765 0.005
484 2 0.08 0.741176 0.03
485 2 0.105 0.711765 0.005
486 2 0.13 0.741176 0.03
487 2 0.155 0.711765 0.005
488 2 0.18 0.741176 0.03
489 2 0.205 0.711765 0.005
490 2 0.23 0.741176 0.03
491 2 0.255 0.711765 0.005
492 2 0.28 0.741176 0.03
493 2 0.305 0.711765 0.005
494 2 0.33 0.741176 0.03
495 2 0.355 0.711765 0.005
496 2 0.38 0.741176 0.03
497 2 0.405 0.711765 0.005
498 2 0.43 0.741176 0.03
499 2 0.455 0.711765 0.005
500 2 0.48 0.741176 0.03
501 2 0.505 0.711765 0.005
502 2 0.53 0.741176 0.03
503 2 0.555 0.711765 0.005
504 2 0.58 0.741176 0.03
505 2 0.605 0.711765 0.005
506 2 0.63 0.741176 0.03
507 2 0.655 0.711765 0.005
508 2 0.68 0.741176 0.03
509 2 0.705 0.711765 0.005
510 2 0.73 0.741176 0.03
511 2 0.755 0.711765 0.005
512 2 0.78 0.741176 0.03
513 2 0.805 0.711765 0.005
514 2 0.83 0.741176 0.03
515 2 0.855 0.711765 0.005
516 2 0.88 0.741176 0.03
517 2 0.905 0.711765 0.005
518 2 0.93 0.741176 0.03
519 2 0.955 0.711765 0.005
520 2 0.98 0.741176 0.03
521 2 0.005 0.770588 0.005
523 2 0.055 0.770588 0.005
525 2 0.105 0.770588 0.005
527 2 0.155 0.770588 0.005
529 2 0.205 0.770588 0.005
531 2 0.255 0.770588 0.005
533 2 0.305 0.770588 0.005
535 2 0.355 0.770588 0.005
537 2 0.405 0.770588 0.005
539 2 0.455 0.770588 0.005
541 2 0.505 0.770588 0.005
543 2 0.555 0.770588 0.005
545 2 0.605 0.770588 0.005
547 2 0.655 0.770588 0.005
549 2 0.705 0.770588 0.005
551 2 0.755 0.770588 0.005
553 2 0.805 0.770588 0.005
555 2 0.855 0.770588 0.005
557 2 0.905 0.770588 0.005
559 2 0.955 0.770588 0.005
522 2 0.03 0.8 0.03
561 2 0.005 0.829412 0.005
563 2 0.055 0.829412 0.005
524 2 0.08 0.8 0.03
565 2 0.105 0.829412 0.005
526 2 0.13 0.8 0.03
567 2 0.155 0.829412 0.005
528 2 0.18 0.8 0.03
569 2 0.205 0.829412 0.005
530 2 0.23 0.8 0.03
532 2 0.28 0.8 0.03
571 2 0.255 0.829412 0.005
573 2 0.305 0.829412 0.005
534 2 0.33 0.8 0.03
575 2 0.355 0.829412 0.005
536 2 0.38 0.8 0.03
577 2 0.405 0.829412 0.005
538 2 0.43 0.8 0.03
579 2 0.455 0.829412 0.005
540 2 0.48 0.8 0.03
542 2 0.53 0.8 0.03
581 2 0.505 0.829412 0.005
583 2 0.555 0.829412 0.005
544 2 0.58 0.8 0.03
585 2 0.605 0.829412 0.005
546 2 0.63 0.8 0.03
587 2 0.655 0.829412 0.005
548 2 0.68 0.8 0.03
589 2 0.705 0.829412 0.005
550 2 0.73 0.8 0.03
552 2 0.78 0.8 0.03
591 2 0.755 0.829412 0.005
593 2 0.805 0.829412 0.005
554 2 0.83 0.8 0.03
595 2 0.855 0.829412 0.005
556 2 0.88 0.8 0.03
597 2 0.905 0.829412 0.005
558 2 0.93 0.8 0.03
599 2 0.955 0.829412 0.005
560 2 0.98 0.8 0.03
562 2 0.03 0.858824 0.03
564 2 0.08 0.858824 0.03
566 2 0.13 0.858824 0.03
568 2 0.18 0.858824 0.03
570 2 0.23 0.858824 0.03
572 2 0.28 0.858824 0.03
574 2 0.33 0.858824 0.03
576 2 0.38 0.858824 0.03
578 2 0.43 0.858824 0.03
580 2 0.48 0.858824 0.03
582 2 0.53 0.858824 0.03
584 2 0.58 0.858824 0.03
586 2 0.63 0.858824 0.03
588 2 0.68 0.858824 0.03
590 2 0.73 0.858824 0.03
592 2 0.78 0.858824 0.03
594 2 0.83 0.858824 0.03
596 2 0.88 0.858824 0.03
598 2 0.93 0.858824 0.03
600 2 0.98 0.858824 0.03
601 2 0.005 0.888235 0.005
603 2 0.055 0.888235 0.005
605 2 0.105 0.888235 0.005
607 2 0.155 0.888235 0.005
609 2 0.205 0.888235 0.005
611 2 0.255 0.888235 0.005
613 2 0.305 0.888235 0.005
615 2 0.355 0.888235 0.005
617 2 0.405 0.888235 0.005
619 2 0.455 0.888235 0.005
621 2 0.505 0.888235 0.005
623 2 0.555 0.888235 0.005
625 2 0.605 0.888235 0.005
627 2 0.655 0.888235 0.005
629 2 0.705 0.888235 0.005
631 2 0.755 0.888235 0.005
633 2 0.805 0.888235 0.005
635 2 0.855 0.888235 0.005
637 2 0.905 0.888235 0.005
639 2 0.955 0.888235 0.005
602 2 0.03 0.917647 0.03
641 2 0.005 0.947059 0.005
643 2 0.055 0.947059 0.005
604 2 0.08 0.917647 0.03
645 2 0.105 0.947059 0.005
606 2 0.13 0.917647 0.03
647 2 0.155 0.947059 0.005
608 2 0.18 0.917647 0.03
649 2 0.205 0.947059 0.005
610 2 0.23 0.917647 0.03
612 2 0.28 0.917647 0.03
651 2 0.255 0.947059 0.005
653 2 0.305 0.947059 0.005
614 2 0.33 0.917647 0.03
655 2 0.355 0.947059 0.005
616 2 0.38 0.917647 0.03
657 2 0.405 0.947059 0.005
618 2 0.43 0.917647 0.03
659 2 0.455 0.947059 0.005
620 2 0.48 0.917647 0.03
622 2 0.53 0.917647 0.03
661 2 0.505 0.947059 0.005
663 2 0.555 0.947059 0.005
624 2 0.58 0.917647 0.03
665 2 0.605 0.947059 0.005
626 2 0.63 0.917647 0.03
667 2 0.655 0.947059 0.005
628 2 0.68 0.917647 0.03
669 2 0.705 0.947059 0.005
630 2 0.73 0.917647 0.03
632 2 0.78 0.917647 0.03
671 2 0.755 0.947059 0.005
673 2 0.805 0.947059 0.005
634 2 0.83 0.917647 0.03
675 2 0.855 0.947059 0.005
636 2 0.88 0.917647 0.03
677 2 0.905 0.947059 0.005
638 2 0.93 0.917647 0.03
679 2 0.955 0.947059 0.005
640 2 0.98 0.917647 0.03
642 2 0.03 0.976471 0.03
644 2 0.08 0.976471 0.03
646 2 0.13 0.976471 0.03
648 2 0.18 0.976471 0.03
650 2 0.23 0.976471 0.03
652 2 0.28 0.976471 0.03
654 2 0.33 0.976471 0.03
656 2 0.38 0.976471 0.03
658 2 0.43 0.976471 0.03
660 2 0.48 0.976471 0.03
662 2 0.53 0.976471 0.03
664 2 0.58 0.976471 0.03
666 2 0.63 0.976471 0.03
668 2 0.68 0.976471 0.03
670 2 0.73 0.976471 0.03
672 2 0.78 0.976471 0.03
674 2 0.83 0.976471 0.03
676 2 0.88 0.976471 0.03
678 2 0.93 0.976471 0.03
680 2 0.98 0.976471 0.03
681 1 0.005 0.00588235 0.055
683 1 0.055 0.00588235 0.055
685 1 0.105 0.00588235 0.055
687 1 0.155 0.00588235 0.055
689 1 0.205 0.00588235 0.055
691 1 0.255 0.00588235 0.055
693 1 0.305 0.00588235 0.055
695 1 0.355 0.00588235 0.055
697 1 0.405 0.00588235 0.055
699 1 0.455 0.00588235 0.055
701 1 0.505 0.00588235 0.055
703 1 0.555 0.00588235 0.055
705 1 0.605 0.00588235 0.055
707 1 0.655 0.00588235 0.055
709 1 0.705 0.00588235 0.055
711 1 0.755 0.00588235 0.055
713 1 0.805 0.00588235 0.055
715 1 0.855 0.00588235 0.055
717 1 0.905 0.00588235 0.055
719 1 0.955 0.00588235 0.055
721 1 0.005 0.0647059 0.055
723 1 0.055 0.0647059 0.055
725 1 0.105 0.0647059 0.055
727 1 0.155 0.0647059 0.055
729 1 0.205 0.0647059 0.055
731 1 0.255 0.0647059 0.055
733 1 0.305 0.0647059 0.055
735 1 0.355 0.0647059 0.055
737 1 0.405 0.0647059 0.055
739 1 0.455 0.0647059 0.055
741 1 0.505 0.0647059 0.055
743 1 0.555 0.0647059 0.055
745 1 0.605 0.0647059 0.055
747 1 0.655 0.0647059 0.055
749 1 0.705 0.0647059 0.055
751 1 0.755 0.0647059 0.055
753 1 0.805 0.0647059 0.055
755 1 0.855 0.0647059 0.055
757 1 0.905 0.0647059 0.055
759 1 0.955 0.0647059 0.055
761 1 0.005 0.123529 0.055
763 1 0.055 0.123529 0.055
765 1 0.105 0.123529 0.055
767 1 0.155 0.123529 0.055
769 1 0.205 0.123529 0.055
771 1 0.255 0.123529 0.055
773 1 0.305 0.123529 0.055
775 1 0.355 0.123529 0.055
777 1 0.405 0.123529 0.055
779 1 0.455 0.123529 0.055
781 1 0.505 0.123529 0.055
783 1 0.555 0.123529 0.055
785 1 0.605 0.123529 0.055
787 1 0.655 0.123529 0.055
789 1 0.705 0.123529 0.055
791 1 0.755 0.123529 0.055
793 1 0.805 0.123529 0.055
795 1 0.855 0.123529 0.055
797 1 0.905 0.123529 0.055
799 1 0.955 0.123529 0.055
801 1 0.005 0.182353 0.055
803 1 0.055 0.182353 0.055
805 1 0.105 0.182353 0.055
807 1 0.155 0.182353 0.055
809 1 0.205 0.182353 0.055
811 1 0.255 0.182353 0.055
813 1 0.305 0.182353 0.055
815 1 0.355 0.182353 0.055
817 1 0.405 0.182353 0.055
819 1 0.455 0.182353 0.055
821 1 0.505 0.182353 0.055
823 1 0.555 0.182353 0.055
825 1 0.605 0.182353 0.055
827 1 0.655 0.182353 0.055
829 1 0.705 0.182353 0.055
831 1 0.755 0.182353 0.055
833 1 0.805 0.182353 0.055
835 1 0.855 0.182353 0.055
837 1 0.905 0.182353 0.055
839 1 0.955 0.182353 0.055
841 1 0.005 0.241176 0.055
843 1 0.055 0.241176 0.055
845 1 0.105 0.241176 0.055
847 1 0.155 0.241176 0.055
849 1 0.205 0.241176 0.055
851 1 0.255 0.241176 0.055
853 1 0.305 0.241176 0.055
855 1 0.355 0.241176 0.055
857 1 0.405 0.241176 0.055
859 1 0.455 0.241176 0.055
861 1 0.505 0.241176 0.055
863 1 0.555 0.241176 0.055
865 1 0.605 0.241176 0.055
867 1 0.655 0.241176 0.055
869 1 0.705 0.241176 0.055
871 1 0.755 0.241176 0.055
873 1 0.805 0.241176 0.055
875 1 0.855 0.241176 0.055
877 1 0.905 0.241176 0.055
879 1 0.955 0.241176 0.055
881 1 0.005 0.3 0.055
883 1 0.055 0.3 0.055
885 1 0.105 0.3 0.055
887 1 0.155 0.3 0.055
889 1 0.205 0.3 0.055
891 1 0.255 0.3 0.055
893 1 0.305 0.3 0.055
895 1 0.355 0.3 0.055
897 1 0.405 0.3 0.055
899 1 0.455 0.3 0.055
901 1 0.505 0.3 0.055
903 1 0.555 0.3 0.055
905 1 0.605 0.3 0.055
907 1 0.655 0.3 0.055
909 1 0.705 0.3 0.055
911 1 0.755 0.3 0.055
913 1 0.805 0.3 0.055
915 1 0.855 0.3 0.055
917 1 0.905 0.3 0.055
919 1 0.955 0.3 0.055
921 1 0.005 0.358824 0.055
923 1 0.055 0.358824 0.055
925 1 0.105 0.358824 0.055
927 1 0.155 0.358824 0.055
929 1 0.205 0.358824 0.055
931 1 0.255 0.358824 0.055
933 1 0.305 0.358824 0.055
935 1 0.355 0.358824 0.055
937 1 0.405 0.358824 0.055
939 1 0.455 0.358824 0.055
941 1 0.505 0.358824 0.055
943 1 0.555 0.358824 0.055
945 1 0.605 0.358824 0.055
947 1 0.655 0.358824 0.055
949 1 0.705 0.358824 0.055
951 1 0.755 0.358824 0.055
953 1 0.805 0.358824 0.055
955 1 0.855 0.358824 0.055
957 1 0.905 0.358824 0.055
959 1 0.955 0.358824 0.055
961 1 0.005 0.417647 0.055
963 1 0.055 0.417647 0.055
965 1 0.105 0.417647 0.055
967 1 0.155 0.417647 0.055
969 1 0.205 0.417647 0.055
971 1 0.255 0.417647 0.055
973 1 0.305 0.417647 0.055
975 1 0.355 0.417647 0.055
977 1 0.405 0.417647 0.055
979 1 0.455 0.417647 0.055
981 1 0.505 0.417647 0.055
983 1 0.555 0.417647 0.055
985 1 0.605 0.417647 0.055
987 1 0.655 0.417647 0.055
989 1 0.705 0.417647 0.055
991 1 0.755 0.417647 0.055
993 1 0.805 0.417647 0.055
995 1 0.855 0.417647 0.055
997 1 0.905 0.417647 0.055
999 1 0.955 0.417647 0.055
1001 1 0.005 0.476471 0.055
1003 1 0.055 0.476471 0.055
1005 1 0.105 0.476471 0.055
1007 1 0.155 0.476471 0.055
1009 1 0.205 0.476471 0.055
1011 1 0.255 0.476471 0.055
1013 1 0.305 0.476471 0.055
1015 1 0.355 0.476471 0.055
1017 1 0.405 0.476471 0.055
1019 1 0.455 0.476471 0.055
1021 1 0.505 0.476471 0.055
1023 1 0.555 0.476471 0.055
1025 1 0.605 0.476471 0.055
1027 1 0.655 0.476471 0.055
1029 1 0.705 0.476471 0.055
1031 1 0.755 0.476471 0.055
1033 1 0.805 0.476471 0.055
1035 1 0.855 0.476471 0.055
1037 1 0.905 0.476471 0.055
1039 1 0.955 0.476471 0.055
1041 1 0.005 0.535294 0.055
1043 1 0.055 0.535294 0.055
1045 1 0.105 0.535294 0.055
1047 1 0.155 0.535294 0.055
1049 1 0.205 0.535294 0.055
1051 1 0.255 0.535294 0.055
1053 1 0.305 0.535294 0.055
1055 1 0.355 0.535294 0.055
1057 1 0.405 0.535294 0.055
1059 1 0.455 0.535294 0.055
1061 1 0.505 0.535294 0.055
1063 1 0.555 0.535294 0.055
1065 1 0.605 0.535294 0.055
1067 1 0.655 0.535294 0.055
1069 1 0.705 0.535294 0.055
1071 1 0.755 0.535294 0.055
1073 1 0.805 0.535294 0.055
1075 1 0.855 0.535294 0.055
1077 1 0.905 0.535294 0.055
1079 1 0.955 0.535294 0.055
1081 1 0.005 0.594118 0.055
1083 1 0.055 0.594118 0.055
1085 1 0.105 0.594118 0.055
1087 1 0.155 0.594118 0.055
1089 1 0.205 0.594118 0.055
1091 1 0.255 0.594118 0.055
1093 1 0.305 0.594118 0.055
1095 1 0.355 0.594118 0.055
1097 1 0.405 0.594118 0.055
1099 1 0.455 0.594118 0.055
1101 1 0.505 0.594118 0.055
1103 1 0.555 0.594118 0.055
1105 1 0.605 0.594118 0.055
1107 1 0.655 0.594118 0.055
1109 1 0.705 0.594118 0.055
1111 1 0.755 0.594118 0.055
1113 1 0.805 0.594118 0.055
1115 1 0.855 0.594118 0.055
1117 1 0.905 0.594118 0.055
1119 1 0.955 0.594118 0.055
1121 1 0.005 0.652941 0.055
1123 1 0.055 0.652941 0.055
1125 1 0.105 0.652941 0.055
1127 1 0.155 0.652941 0.055
1129 1 0.205 0.652941 0.055
1131 1 0.255 0.652941 0.055
1133 1 0.305 0.652941 0.055
1135 1 0.355 0.652941 0.055
1137 1 0.405 0.652941 0.055
1139 1 0.455 0.652941 0.055
1141 1 0.505 0.652941 0.055
1143 1 0.555 0.652941 0.055
1145 1 0.605 0.652941 0.055
1147 1 0.655 0.652941 0.055
1149 1 0.705 0.652941 0.055
1151 1 0.755 0.652941 0.055
1153 1 0.805 0.652941 0.055
1155 1 0.855 0.652941 0.055
1157 1 0.905 0.652941 0.055
1159 1 0.955 0.652941 0.055
1161 1 0.005 0.711765 0.055
1163 1 0.055 0.711765 0.055
1165 1 0.105 0.711765 0.055
1167 1 0.155 0.711765 0.055
1169 1 0.205 0.711765 0.055
1171 1 0.255 0.711765 0.055
1173 1 0.305 0.711765 0.055
1175 1 0.355 0.711765 0.055
1177 1 0.405 0.711765 0.055
1179 1 0.455 0.711765 0.055
1181 1 0.505 0.711765 0.055
1183 1 0.555 0.711765 0.055
1185 1 0.605 0.711765 0.055
1187 1 0.655 0.711765 0.055
1189 1 0.705 0.711765 0.055
1191 1 0.755 0.711765 0.055
1193 1 0.805 0.711765 0.055
1195 1 0.855 0.711765 0.055
1197 1 0.905 0.711765 0.055
1199 1 0.955 0.711765 0.055
1201 1 0.005 0.770588 0.055
1203 1 0.055 0.770588 0.055
1205 1 0.105 0.770588 0.055
1207 1 0.155 0.770588 0.055
1209 1 0.205 0.770588 0.055
1211 1 0.255 0.770588 0.055
1213 1 0.305 0.770588 0.055
1215 1 0.355 0.770588 0.055
1217 1 0.405 0.770588 0.055
1219 1 0.455 0.770588 0.055
1221 1 0.505 0.770588 0.055
1223 1 0.555 0.770588 0.055
1225 1 0.605 0.770588 0.055
1227 1 0.655 0.770588 0.055
1229 1 0.705 0.770588 0.055
1231 1 0.755 0.770588 0.055
1233 1 0.805 0.770588 0.055
1235 1 0.855 0.770588 0.055
1237 1 0.905 0.770588 0.055
1239 1 0.955 0.770588 0.055
1241 1 0.005 0.829412 0.055
1243 1 0.055 0.829412 0.055
1245 1 0.105 0.829412 0.055
1247 1 0.155 0.829412 0.055
1249 1 0.205 0.829412 0.055
1251 1 0.255 0.829412 0.055
1253 1 0.305 0.829412 0.055
1255 1 0.355 0.829412 0.055
1257 1 0.405 0.829412 0.055
1259 1 0.455 0.829412 0.055
1261 1 0.505 0.829412 0.055
1263 1 0.555 0.829412 0.055
1265 1 0.605 0.829412 0.055
1267 1 0.655 0.829412 0.055
1269 1 0.705 0.829412 0.055
1271 1 0.755 0.829412 0.055
1273 1 0.805 0.829412 0.055
1275 1 0.855 0.829412 0.055
1277 1 0.905 0.829412 0.055
1279 1 0.955 0.829412 0.055
1281 1 0.005 0.888235 0.055
1283 1 0.055 0.888235 0.055
1285 1 0.105 0.888235 0.055
1287 1 0.155 0.888235 0.055
1289 1 0.205 0.888235 0.055
1291 1 0.255 0.888235 0.055
1293 1 0.305 0.888235 0.055
1295 1 0.355 0.888235 0.055
1297 1 0.405 0.888235 0.055
1299 1 0.455 0.888235 0.055
1301 1 0.505 0.888235 0.055
1303 1 0.555 0.888235 0.055
1305 1 0.605 0.888235 0.055
1307 1 0.655 0.888235 0.055
1309 1 0.705 0.888235 0.055
1311 1 0.755 0.888235 0.055
1313 1 0.805 0.888235 0.055
1315 1 0.855 0.888235 0.055
1317 1 0.905 0.888235 0.055
1319 1 0.955 0.888235 0.055
1321 1 0.005 0.947059 0.055
1323 1 0.055 0.947059 0.055
1325 1 0.105 0.947059 0.055
1327 1 0.155 0.947059 0.055
1329 1 0.205 0.947059 0.055
1331 1 0.255 0.947059 0.055
1333 1 0.305 0.947059 0.055
1335 1 0.355 0.947059 0.055
1337 1 0.405 0.947059 0.055
1339 1 0.455 0.947059 0.055
1341 1 0.505 0.947059 0.055
1343 1 0.555 0.947059 0.055
1345 1 0.605 0.947059 0.055
1347 1 0.655 0.947059 0.055
1349 1 0.705 0.947059 0.055
1351 1 0.755 0.947059 0.055
1353 1 0.805 0.947059 0.055
1355 1 0.855 0.947059 0.055
1357 1 0.905 0.947059 0.055
1359 1 0.955 0.947059 0.055
682 1 0.03 0.0352941 0.08
1361 1 0.005 0.00588235 0.105
1363 1 0.055 0.00588235 0.105
684 1 0.08 0.0352941 0.08
1365 1 0.105 0.00588235 0.105
686 1 0.13 0.0352941 0.08
1367 1 0.155 0.00588235 0.105
688 1 0.18 0.0352941 0.08
1369 1 0.205 0.00588235 0.105
690 1 0.23 0.0352941 0.08
692 1 0.28 0.0352941 0.08
1371 1 0.255 0.00588235 0.105
1373 1 0.305 0.00588235 0.105
694 1 0.33 0.0352941 0.08
1375 1 0.355 0.00588235 0.105
696 1 0.38 0.0352941 0.08
1377 1 0.405 0.00588235 0.105
698 1 0.43 0.0352941 0.08
1379 1 0.455 0.00588235 0.105
700 1 0.48 0.0352941 0.08
702 1 0.53 0.0352941 0.08
1381 1 0.505 0.00588235 0.105
1383 1 0.555 0.00588235 0.105
704 1 0.58 0.0352941 0.08
1385 1 0.605 0.00588235 0.105
706 1 0.63 0.0352941 0.08
1387 1 0.655 0.00588235 0.105
708 1 0.68 0.0352941 0.08
1389 1 0.705 0.00588235 0.105
710 1 0.73 0.0352941 0.08
712 1 0.78 0.0352941 0.08
1391 1 0.755 0.00588235 0.105
1393 1 0.805 0.00588235 0.105
714 1 0.83 0.0352941 0.08
1395 1 0.855 0.00588235 0.105
716 1 0.88 0.0352941 0.08
1397 1 0.905 0.00588235 0.105
718 1 0.93 0.0352941 0.08
1399 1 0.955 0.00588235 0.105
720 1 0.98 0.0352941 0.08
1401 1 0.005 0.0647059 0.105
1403 1 0.055 0.0647059 0.105
1405 1 0.105 0.0647059 0.105
1407 1 0.155 0.0647059 0.105
1409 1 0.205 0.0647059 0.105
1411 1 0.255 0.0647059 0.105
1413 1 0.305 0.0647059 0.105
1415 1 0.355 0.0647059 0.105
1417 1 0.405 0.0647059 0.105
1419 1 0.455 0.0647059 0.105
1421 1 0.505 0.0647059 0.105
1423 1 0.555 0.0647059 0.105
1425 1 0.605 0.0647059 0.105
1427 1 0.655 0.0647059 0.105
1429 1 0.705 0.0647059 0.105
1431 1 0.755 0.0647059 0.105
1433 1 0.805 0.0647059 0.105
1435 1 0.855 0.0647059 0.105
1437 1 0.905 0.0647059 0.105
1439 1 0.955 0.0647059 0.105
722 1 0.03 0.0941176 0.08
1441 1 0.005 0.123529 0.105
1443 1 0.055 0.123529 0.105
724 1 0.08 0.0941176 0.08
1445 1 0.105 0.123529 0.105
726 1 0.13 0.0941176 0.08
1447 1 0.155 0.123529 0.105
728 1 0.18 0.0941176 0.08
1449 1 0.205 0.123529 0.105
730 1 0.23 0.0941176 0.08
732 1 0.28 0.0941176 0.08
1451 1 0.255 0.123529 0.105
1453 1 0.305 0.123529 0.105
734 1 0.33 0.0941176 0.08
1455 1 0.355 0.123529 0.105
736 1 0.38 0.0941176 0.08
1457 1 0.405 0.123529 0.105
738 1 0.43 0.0941176 0.08
1459 1 0.455 0.123529 0.105
740 1 0.48 0.0941176 0.08
742 1 0.53 0.0941176 0.08
1461 1 0.505 0.123529 0.105
1463 1 0.555 0.123529 0.105
744 1 0.58 0.0941176 0.08
1465 1 0.605 0.123529 0.105
746 1 0.63 0.0941176 0.08
1467 1 0.655 0.123529 0.105
748 1 0.68 0.0941176 0.08
1469 1 0.705 0.123529 0.105
750 1 0.73 0.0941176 0.08
752 1 0.78 0.0941176 0.08
1471 1 0.755 0.123529 0.105
1473 1 0.805 0.123529 0.105
754 1 0.83 0.0941176 0.08
1475 1 0.855 0.123529 0.105
756 1 0.88 0.0941176 0.08
1477 1 0.905 0.123529 0.105
758 1 0.93 0.0941176 0.08
1479 1 0.955 0.123529 0.105
760 1 0.98 0.0941176 0.08
762 1 0.03 0.152941 0.08
764 1 0.08 0.152941 0.08
766 1 0.13 0.152941 0.08
768 1 0.18 0.152941 0.08
770 1 0.23 0.152941 0.08
772 1 0.28 0.152941 0.08
774 1 0.33 0.152941 0.08